<?xml version="1.0" encoding="UTF-8"?>

<!-- generated on 2023-11-17 00:48:29 by Eclipse SUMO GUI Version 1.18.0
<configuration xmlns:xsi="http://www.w3.org/2001/XMLSchema-instance" xsi:noNamespaceSchemaLocation="http://sumo.dlr.de/xsd/sumoConfiguration.xsd">

    <input>
        <net-file value="C://PHD//RL_VSL_2023//rl_vsl_sumo//gym_sumo//envs//sumo_configs//map3.net.xml"/>
        <route-files value="C://PHD//RL_VSL_2023//rl_vsl_sumo//gym_sumo//envs//sumo_configs//map3.rou.xml"/>
        <additional-files value="C://PHD//RL_VSL_2023//rl_vsl_sumo//gym_sumo//envs//sumo_configs//map3.det.xml"/>
    </input>

    <output>
        <summary-output value="C://PHD//RL_VSL_2023//rl_vsl_sumo//gym_sumo//envs//sumo_configs//output_sumo.xml"/>
    </output>

    <time>
        <step-length value="0.5"/>
    </time>

    <report>
        <log value="C://PHD//RL_VSL_2023//rl_vsl_sumo//gym_sumo//envs//results//logsumo.txt"/>
    </report>

    <ssm_device>
        <device.ssm.deterministic value="true"/>
        <device.ssm.measures value="TTC"/>
        <device.ssm.file value="ssm.xml"/>
    </ssm_device>

    <traci_server>
        <remote-port value="58186"/>
    </traci_server>

    <random_number>
        <random value="true"/>
    </random_number>

    <gui_only>
        <gui-settings-file value="C://PHD//RL_VSL_2023//rl_vsl_sumo//gym_sumo//envs//sumo_configs//vsl.settings.xml"/>
        <quit-on-end value="true"/>
        <start value="true"/>
    </gui_only>

</configuration>
-->

<SSMLog>
</SSMLog>
